
108 atoms
3 atom types
   0.0000000000   10.8457031250 xlo xhi
   0.0000000000   10.8457031250 ylo yhi
   0.0000000000   10.8457031250 zlo zhi
   0.0000000000    0.0000000000    0.0000000000 xy xz yz

Atoms # atomic

     1      1    1.8076171875    1.8076171875    0.0000000000
     2      1    0.0000000000    0.0000000000    3.6152343750
     3      1    0.0000000000    0.0000000000    7.2304687500
     4      1    0.0000000000    3.6152343750    0.0000000000
     5      1    1.8076171875    5.4228515625    3.6152343750
     6      1    0.0000000000    5.4228515625    9.0380859375
     7      1    0.0000000000    7.2304687500    0.0000000000
     8      1    1.8076171875    9.0380859375    0.0000000000
     9      1    1.8076171875    9.0380859375    3.6152343750
    10      1    0.0000000000    9.0380859375    9.0380859375
    11      1    3.6152343750    0.0000000000    0.0000000000
    12      1    3.6152343750    1.8076171875    1.8076171875
    13      1    5.4228515625    1.8076171875    3.6152343750
    14      1    5.4228515625    0.0000000000    5.4228515625
    15      1    5.4228515625    0.0000000000    9.0380859375
    16      1    3.6152343750    3.6152343750    0.0000000000
    17      1    5.4228515625    3.6152343750    1.8076171875
    18      1    3.6152343750    5.4228515625    1.8076171875
    19      1    3.6152343750    3.6152343750    3.6152343750
    20      1    5.4228515625    3.6152343750    5.4228515625
    21      1    3.6152343750    5.4228515625    5.4228515625
    22      1    3.6152343750    3.6152343750    7.2304687500
    23      1    5.4228515625    3.6152343750    9.0380859375
    24      1    5.4228515625    9.0380859375    3.6152343750
    25      1    3.6152343750    9.0380859375    5.4228515625
    26      1    7.2304687500    0.0000000000    0.0000000000
    27      1    9.0380859375    1.8076171875    0.0000000000
    28      1    7.2304687500    0.0000000000    3.6152343750
    29      1    7.2304687500    1.8076171875    5.4228515625
    30      1    7.2304687500    5.4228515625    1.8076171875
    31      1    7.2304687500    3.6152343750    3.6152343750
    32      1    9.0380859375    3.6152343750    9.0380859375
    33      1    7.2304687500    5.4228515625    9.0380859375
    34      1    7.2304687500    7.2304687500    0.0000000000
    35      1    9.0380859375    9.0380859375    0.0000000000
    36      1    9.0380859375    7.2304687500    1.8076171875
    37      2    1.8076171875    0.0000000000    1.8076171875
    38      2    0.0000000000    1.8076171875    1.8076171875
    39      2    1.8076171875    0.0000000000    5.4228515625
    40      2    1.8076171875    0.0000000000    9.0380859375
    41      2    1.8076171875    3.6152343750    1.8076171875
    42      2    0.0000000000    3.6152343750    3.6152343750
    43      2    0.0000000000    5.4228515625    5.4228515625
    44      2    0.0000000000    9.0380859375    1.8076171875
    45      2    0.0000000000    9.0380859375    5.4228515625
    46      2    1.8076171875    9.0380859375    7.2304687500
    47      2    1.8076171875    7.2304687500    9.0380859375
    48      2    5.4228515625    0.0000000000    1.8076171875
    49      2    3.6152343750    0.0000000000    3.6152343750
    50      2    3.6152343750    1.8076171875    5.4228515625
    51      2    5.4228515625    5.4228515625    0.0000000000
    52      2    5.4228515625    5.4228515625    3.6152343750
    53      2    3.6152343750    5.4228515625    9.0380859375
    54      2    5.4228515625    9.0380859375    0.0000000000
    55      2    5.4228515625    7.2304687500    5.4228515625
    56      2    5.4228515625    9.0380859375    7.2304687500
    57      2    3.6152343750    9.0380859375    9.0380859375
    58      2    9.0380859375    0.0000000000    1.8076171875
    59      2    9.0380859375    1.8076171875    3.6152343750
    60      2    9.0380859375    0.0000000000    5.4228515625
    61      2    7.2304687500    0.0000000000    7.2304687500
    62      2    9.0380859375    1.8076171875    7.2304687500
    63      2    9.0380859375    0.0000000000    9.0380859375
    64      2    7.2304687500    3.6152343750    0.0000000000
    65      2    9.0380859375    5.4228515625    3.6152343750
    66      2    9.0380859375    3.6152343750    5.4228515625
    67      2    7.2304687500    5.4228515625    5.4228515625
    68      2    9.0380859375    9.0380859375    3.6152343750
    69      2    7.2304687500    7.2304687500    7.2304687500
    70      2    9.0380859375    9.0380859375    7.2304687500
    71      2    9.0380859375    7.2304687500    9.0380859375
    72      2    7.2304687500    9.0380859375    9.0380859375
    73      3    0.0000000000    0.0000000000    0.0000000000
    74      3    1.8076171875    1.8076171875    3.6152343750
    75      3    0.0000000000    1.8076171875    5.4228515625
    76      3    1.8076171875    1.8076171875    7.2304687500
    77      3    0.0000000000    1.8076171875    9.0380859375
    78      3    1.8076171875    5.4228515625    0.0000000000
    79      3    0.0000000000    5.4228515625    1.8076171875
    80      3    1.8076171875    3.6152343750    5.4228515625
    81      3    0.0000000000    3.6152343750    7.2304687500
    82      3    1.8076171875    5.4228515625    7.2304687500
    83      3    1.8076171875    3.6152343750    9.0380859375
    84      3    1.8076171875    7.2304687500    1.8076171875
    85      3    0.0000000000    7.2304687500    3.6152343750
    86      3    1.8076171875    7.2304687500    5.4228515625
    87      3    0.0000000000    7.2304687500    7.2304687500
    88      3    5.4228515625    1.8076171875    0.0000000000
    89      3    3.6152343750    0.0000000000    7.2304687500
    90      3    5.4228515625    1.8076171875    7.2304687500
    91      3    3.6152343750    1.8076171875    9.0380859375
    92      3    5.4228515625    5.4228515625    7.2304687500
    93      3    3.6152343750    7.2304687500    0.0000000000
    94      3    5.4228515625    7.2304687500    1.8076171875
    95      3    3.6152343750    9.0380859375    1.8076171875
    96      3    3.6152343750    7.2304687500    3.6152343750
    97      3    3.6152343750    7.2304687500    7.2304687500
    98      3    5.4228515625    7.2304687500    9.0380859375
    99      3    7.2304687500    1.8076171875    1.8076171875
   100      3    7.2304687500    1.8076171875    9.0380859375
   101      3    9.0380859375    5.4228515625    0.0000000000
   102      3    9.0380859375    3.6152343750    1.8076171875
   103      3    7.2304687500    3.6152343750    7.2304687500
   104      3    9.0380859375    5.4228515625    7.2304687500
   105      3    7.2304687500    9.0380859375    1.8076171875
   106      3    7.2304687500    7.2304687500    3.6152343750
   107      3    9.0380859375    7.2304687500    5.4228515625
   108      3    7.2304687500    9.0380859375    5.4228515625
