
108 atoms
3 atom types
   0.0000000000   10.8457031250 xlo xhi
   0.0000000000   10.8457031250 ylo yhi
   0.0000000000   10.8457031250 zlo zhi
   0.0000000000    0.0000000000    0.0000000000 xy xz yz

Atoms # atomic

     1      1    0.0000000000    0.0000000000    0.0000000000
     2      1    0.0000000000    1.8076171875    5.4228515625
     3      1    0.0000000000    0.0000000000    7.2304687500
     4      1    1.8076171875    1.8076171875    7.2304687500
     5      1    1.8076171875    0.0000000000    9.0380859375
     6      1    0.0000000000    3.6152343750    0.0000000000
     7      1    0.0000000000    3.6152343750    3.6152343750
     8      1    1.8076171875    3.6152343750    9.0380859375
     9      1    0.0000000000    7.2304687500    0.0000000000
    10      1    1.8076171875    9.0380859375    0.0000000000
    11      1    0.0000000000    9.0380859375    5.4228515625
    12      1    1.8076171875    7.2304687500    9.0380859375
    13      1    3.6152343750    0.0000000000    0.0000000000
    14      1    5.4228515625    1.8076171875    0.0000000000
    15      1    3.6152343750    1.8076171875    5.4228515625
    16      1    3.6152343750    0.0000000000    7.2304687500
    17      1    5.4228515625    1.8076171875    7.2304687500
    18      1    5.4228515625    0.0000000000    9.0380859375
    19      1    3.6152343750    5.4228515625    1.8076171875
    20      1    5.4228515625    3.6152343750    5.4228515625
    21      1    3.6152343750    3.6152343750    7.2304687500
    22      1    5.4228515625    7.2304687500    1.8076171875
    23      1    3.6152343750    7.2304687500    3.6152343750
    24      1    5.4228515625    9.0380859375    3.6152343750
    25      1    9.0380859375    1.8076171875    0.0000000000
    26      1    7.2304687500    1.8076171875    1.8076171875
    27      1    7.2304687500    1.8076171875    5.4228515625
    28      1    9.0380859375    1.8076171875    7.2304687500
    29      1    9.0380859375    0.0000000000    9.0380859375
    30      1    7.2304687500    3.6152343750    0.0000000000
    31      1    9.0380859375    5.4228515625    3.6152343750
    32      1    7.2304687500    3.6152343750    7.2304687500
    33      1    9.0380859375    5.4228515625    7.2304687500
    34      1    9.0380859375    3.6152343750    9.0380859375
    35      1    7.2304687500    7.2304687500    3.6152343750
    36      1    7.2304687500    7.2304687500    7.2304687500
    37      2    1.8076171875    1.8076171875    0.0000000000
    38      2    1.8076171875    0.0000000000    1.8076171875
    39      2    1.8076171875    1.8076171875    3.6152343750
    40      2    1.8076171875    0.0000000000    5.4228515625
    41      2    1.8076171875    5.4228515625    0.0000000000
    42      2    1.8076171875    3.6152343750    1.8076171875
    43      2    0.0000000000    5.4228515625    1.8076171875
    44      2    1.8076171875    3.6152343750    5.4228515625
    45      2    0.0000000000    5.4228515625    9.0380859375
    46      2    1.8076171875    7.2304687500    1.8076171875
    47      2    1.8076171875    7.2304687500    5.4228515625
    48      2    0.0000000000    9.0380859375    9.0380859375
    49      2    5.4228515625    0.0000000000    1.8076171875
    50      2    3.6152343750    1.8076171875    1.8076171875
    51      2    5.4228515625    1.8076171875    3.6152343750
    52      2    5.4228515625    3.6152343750    1.8076171875
    53      2    3.6152343750    3.6152343750    3.6152343750
    54      2    3.6152343750    5.4228515625    5.4228515625
    55      2    3.6152343750    7.2304687500    0.0000000000
    56      2    5.4228515625    7.2304687500    5.4228515625
    57      2    3.6152343750    9.0380859375    5.4228515625
    58      2    3.6152343750    7.2304687500    7.2304687500
    59      2    5.4228515625    7.2304687500    9.0380859375
    60      2    3.6152343750    9.0380859375    9.0380859375
    61      2    7.2304687500    0.0000000000    0.0000000000
    62      2    7.2304687500    0.0000000000    7.2304687500
    63      2    9.0380859375    3.6152343750    1.8076171875
    64      2    7.2304687500    3.6152343750    3.6152343750
    65      2    9.0380859375    3.6152343750    5.4228515625
    66      2    7.2304687500    5.4228515625    5.4228515625
    67      2    7.2304687500    5.4228515625    9.0380859375
    68      2    7.2304687500    7.2304687500    0.0000000000
    69      2    9.0380859375    9.0380859375    0.0000000000
    70      2    7.2304687500    9.0380859375    1.8076171875
    71      2    9.0380859375    9.0380859375    7.2304687500
    72      2    9.0380859375    7.2304687500    9.0380859375
    73      3    0.0000000000    1.8076171875    1.8076171875
    74      3    0.0000000000    0.0000000000    3.6152343750
    75      3    0.0000000000    1.8076171875    9.0380859375
    76      3    1.8076171875    5.4228515625    3.6152343750
    77      3    0.0000000000    5.4228515625    5.4228515625
    78      3    0.0000000000    3.6152343750    7.2304687500
    79      3    1.8076171875    5.4228515625    7.2304687500
    80      3    0.0000000000    9.0380859375    1.8076171875
    81      3    0.0000000000    7.2304687500    3.6152343750
    82      3    1.8076171875    9.0380859375    3.6152343750
    83      3    0.0000000000    7.2304687500    7.2304687500
    84      3    1.8076171875    9.0380859375    7.2304687500
    85      3    3.6152343750    0.0000000000    3.6152343750
    86      3    5.4228515625    0.0000000000    5.4228515625
    87      3    3.6152343750    1.8076171875    9.0380859375
    88      3    3.6152343750    3.6152343750    0.0000000000
    89      3    5.4228515625    5.4228515625    0.0000000000
    90      3    5.4228515625    5.4228515625    3.6152343750
    91      3    5.4228515625    5.4228515625    7.2304687500
    92      3    5.4228515625    3.6152343750    9.0380859375
    93      3    3.6152343750    5.4228515625    9.0380859375
    94      3    5.4228515625    9.0380859375    0.0000000000
    95      3    3.6152343750    9.0380859375    1.8076171875
    96      3    5.4228515625    9.0380859375    7.2304687500
    97      3    9.0380859375    0.0000000000    1.8076171875
    98      3    7.2304687500    0.0000000000    3.6152343750
    99      3    9.0380859375    1.8076171875    3.6152343750
   100      3    9.0380859375    0.0000000000    5.4228515625
   101      3    7.2304687500    1.8076171875    9.0380859375
   102      3    9.0380859375    5.4228515625    0.0000000000
   103      3    7.2304687500    5.4228515625    1.8076171875
   104      3    9.0380859375    7.2304687500    1.8076171875
   105      3    9.0380859375    9.0380859375    3.6152343750
   106      3    9.0380859375    7.2304687500    5.4228515625
   107      3    7.2304687500    9.0380859375    5.4228515625
   108      3    7.2304687500    9.0380859375    9.0380859375
