
108 atoms
3 atom types
   0.0000000000   10.8457031250 xlo xhi
   0.0000000000   10.8457031250 ylo yhi
   0.0000000000   10.8457031250 zlo zhi
   0.0000000000    0.0000000000    0.0000000000 xy xz yz

Atoms # atomic

     1      1    0.0000000000    1.8076171875    5.4228515625
     2      1    0.0000000000    0.0000000000    7.2304687500
     3      1    1.8076171875    1.8076171875    7.2304687500
     4      1    0.0000000000    1.8076171875    9.0380859375
     5      1    0.0000000000    3.6152343750    0.0000000000
     6      1    1.8076171875    5.4228515625    0.0000000000
     7      1    0.0000000000    5.4228515625    1.8076171875
     8      1    0.0000000000    3.6152343750    3.6152343750
     9      1    1.8076171875    3.6152343750    5.4228515625
    10      1    1.8076171875    9.0380859375    0.0000000000
    11      1    0.0000000000    7.2304687500    3.6152343750
    12      1    0.0000000000    7.2304687500    7.2304687500
    13      1    1.8076171875    9.0380859375    7.2304687500
    14      1    3.6152343750    0.0000000000    3.6152343750
    15      1    5.4228515625    0.0000000000    5.4228515625
    16      1    3.6152343750    1.8076171875    9.0380859375
    17      1    5.4228515625    5.4228515625    0.0000000000
    18      1    5.4228515625    3.6152343750    1.8076171875
    19      1    5.4228515625    5.4228515625    3.6152343750
    20      1    5.4228515625    5.4228515625    7.2304687500
    21      1    5.4228515625    7.2304687500    1.8076171875
    22      1    3.6152343750    7.2304687500    3.6152343750
    23      1    5.4228515625    7.2304687500    5.4228515625
    24      1    3.6152343750    9.0380859375    9.0380859375
    25      1    9.0380859375    1.8076171875    0.0000000000
    26      1    9.0380859375    1.8076171875    7.2304687500
    27      1    9.0380859375    0.0000000000    9.0380859375
    28      1    9.0380859375    3.6152343750    1.8076171875
    29      1    9.0380859375    5.4228515625    3.6152343750
    30      1    9.0380859375    5.4228515625    7.2304687500
    31      1    9.0380859375    7.2304687500    1.8076171875
    32      1    7.2304687500    7.2304687500    3.6152343750
    33      1    9.0380859375    9.0380859375    3.6152343750
    34      1    9.0380859375    7.2304687500    5.4228515625
    35      1    7.2304687500    9.0380859375    5.4228515625
    36      1    9.0380859375    7.2304687500    9.0380859375
    37      2    0.0000000000    0.0000000000    0.0000000000
    38      2    1.8076171875    0.0000000000    1.8076171875
    39      2    0.0000000000    1.8076171875    1.8076171875
    40      2    0.0000000000    0.0000000000    3.6152343750
    41      2    1.8076171875    0.0000000000    9.0380859375
    42      2    1.8076171875    5.4228515625    3.6152343750
    43      2    0.0000000000    5.4228515625    5.4228515625
    44      2    0.0000000000    3.6152343750    7.2304687500
    45      2    1.8076171875    5.4228515625    7.2304687500
    46      2    1.8076171875    3.6152343750    9.0380859375
    47      2    0.0000000000    9.0380859375    1.8076171875
    48      2    1.8076171875    7.2304687500    5.4228515625
    49      2    1.8076171875    7.2304687500    9.0380859375
    50      2    0.0000000000    9.0380859375    9.0380859375
    51      2    3.6152343750    1.8076171875    1.8076171875
    52      2    3.6152343750    1.8076171875    5.4228515625
    53      2    5.4228515625    0.0000000000    9.0380859375
    54      2    3.6152343750    5.4228515625    1.8076171875
    55      2    3.6152343750    3.6152343750    3.6152343750
    56      2    5.4228515625    3.6152343750    5.4228515625
    57      2    3.6152343750    5.4228515625    5.4228515625
    58      2    3.6152343750    3.6152343750    7.2304687500
    59      2    5.4228515625    9.0380859375    3.6152343750
    60      2    3.6152343750    9.0380859375    5.4228515625
    61      2    5.4228515625    7.2304687500    9.0380859375
    62      2    9.0380859375    0.0000000000    1.8076171875
    63      2    9.0380859375    0.0000000000    5.4228515625
    64      2    7.2304687500    1.8076171875    5.4228515625
    65      2    7.2304687500    3.6152343750    0.0000000000
    66      2    7.2304687500    3.6152343750    3.6152343750
    67      2    9.0380859375    3.6152343750    5.4228515625
    68      2    7.2304687500    3.6152343750    7.2304687500
    69      2    7.2304687500    5.4228515625    9.0380859375
    70      2    7.2304687500    7.2304687500    0.0000000000
    71      2    9.0380859375    9.0380859375    0.0000000000
    72      2    7.2304687500    9.0380859375    9.0380859375
    73      3    1.8076171875    1.8076171875    0.0000000000
    74      3    1.8076171875    1.8076171875    3.6152343750
    75      3    1.8076171875    0.0000000000    5.4228515625
    76      3    1.8076171875    3.6152343750    1.8076171875
    77      3    0.0000000000    5.4228515625    9.0380859375
    78      3    0.0000000000    7.2304687500    0.0000000000
    79      3    1.8076171875    7.2304687500    1.8076171875
    80      3    1.8076171875    9.0380859375    3.6152343750
    81      3    0.0000000000    9.0380859375    5.4228515625
    82      3    3.6152343750    0.0000000000    0.0000000000
    83      3    5.4228515625    1.8076171875    0.0000000000
    84      3    5.4228515625    0.0000000000    1.8076171875
    85      3    5.4228515625    1.8076171875    3.6152343750
    86      3    3.6152343750    0.0000000000    7.2304687500
    87      3    5.4228515625    1.8076171875    7.2304687500
    88      3    3.6152343750    3.6152343750    0.0000000000
    89      3    5.4228515625    3.6152343750    9.0380859375
    90      3    3.6152343750    5.4228515625    9.0380859375
    91      3    3.6152343750    7.2304687500    0.0000000000
    92      3    5.4228515625    9.0380859375    0.0000000000
    93      3    3.6152343750    9.0380859375    1.8076171875
    94      3    3.6152343750    7.2304687500    7.2304687500
    95      3    5.4228515625    9.0380859375    7.2304687500
    96      3    7.2304687500    0.0000000000    0.0000000000
    97      3    7.2304687500    1.8076171875    1.8076171875
    98      3    7.2304687500    0.0000000000    3.6152343750
    99      3    9.0380859375    1.8076171875    3.6152343750
   100      3    7.2304687500    0.0000000000    7.2304687500
   101      3    7.2304687500    1.8076171875    9.0380859375
   102      3    9.0380859375    5.4228515625    0.0000000000
   103      3    7.2304687500    5.4228515625    1.8076171875
   104      3    7.2304687500    5.4228515625    5.4228515625
   105      3    9.0380859375    3.6152343750    9.0380859375
   106      3    7.2304687500    9.0380859375    1.8076171875
   107      3    7.2304687500    7.2304687500    7.2304687500
   108      3    9.0380859375    9.0380859375    7.2304687500
