
108 atoms
3 atom types
   0.0000000000   10.8457031250 xlo xhi
   0.0000000000   10.8457031250 ylo yhi
   0.0000000000   10.8457031250 zlo zhi
   0.0000000000    0.0000000000    0.0000000000 xy xz yz

Atoms # atomic

     1      1    1.8076171875    0.0000000000    1.8076171875
     2      1    0.0000000000    1.8076171875    5.4228515625
     3      1    0.0000000000    0.0000000000    7.2304687500
     4      1    0.0000000000    3.6152343750    0.0000000000
     5      1    0.0000000000    3.6152343750    3.6152343750
     6      1    0.0000000000    3.6152343750    7.2304687500
     7      1    1.8076171875    3.6152343750    9.0380859375
     8      1    0.0000000000    9.0380859375    5.4228515625
     9      1    5.4228515625    1.8076171875    0.0000000000
    10      1    3.6152343750    0.0000000000    3.6152343750
    11      1    5.4228515625    1.8076171875    3.6152343750
    12      1    5.4228515625    0.0000000000    5.4228515625
    13      1    3.6152343750    1.8076171875    5.4228515625
    14      1    3.6152343750    0.0000000000    7.2304687500
    15      1    5.4228515625    1.8076171875    7.2304687500
    16      1    3.6152343750    1.8076171875    9.0380859375
    17      1    3.6152343750    3.6152343750    0.0000000000
    18      1    3.6152343750    5.4228515625    5.4228515625
    19      1    5.4228515625    3.6152343750    9.0380859375
    20      1    5.4228515625    7.2304687500    1.8076171875
    21      1    3.6152343750    7.2304687500    3.6152343750
    22      1    5.4228515625    7.2304687500    5.4228515625
    23      1    3.6152343750    7.2304687500    7.2304687500
    24      1    3.6152343750    9.0380859375    9.0380859375
    25      1    7.2304687500    0.0000000000    0.0000000000
    26      1    9.0380859375    0.0000000000    5.4228515625
    27      1    9.0380859375    1.8076171875    7.2304687500
    28      1    7.2304687500    1.8076171875    9.0380859375
    29      1    7.2304687500    3.6152343750    0.0000000000
    30      1    7.2304687500    5.4228515625    5.4228515625
    31      1    7.2304687500    3.6152343750    7.2304687500
    32      1    7.2304687500    5.4228515625    9.0380859375
    33      1    7.2304687500    9.0380859375    1.8076171875
    34      1    9.0380859375    7.2304687500    5.4228515625
    35      1    9.0380859375    9.0380859375    7.2304687500
    36      1    9.0380859375    7.2304687500    9.0380859375
    37      2    0.0000000000    0.0000000000    0.0000000000
    38      2    0.0000000000    1.8076171875    1.8076171875
    39      2    1.8076171875    1.8076171875    3.6152343750
    40      2    1.8076171875    1.8076171875    7.2304687500
    41      2    1.8076171875    0.0000000000    9.0380859375
    42      2    0.0000000000    1.8076171875    9.0380859375
    43      2    1.8076171875    5.4228515625    0.0000000000
    44      2    0.0000000000    5.4228515625    1.8076171875
    45      2    1.8076171875    5.4228515625    3.6152343750
    46      2    0.0000000000    5.4228515625    9.0380859375
    47      2    1.8076171875    7.2304687500    1.8076171875
    48      2    0.0000000000    9.0380859375    1.8076171875
    49      2    0.0000000000    7.2304687500    3.6152343750
    50      2    1.8076171875    7.2304687500    5.4228515625
    51      2    0.0000000000    9.0380859375    9.0380859375
    52      2    5.4228515625    5.4228515625    0.0000000000
    53      2    3.6152343750    3.6152343750    3.6152343750
    54      2    5.4228515625    5.4228515625    7.2304687500
    55      2    3.6152343750    5.4228515625    9.0380859375
    56      2    3.6152343750    7.2304687500    0.0000000000
    57      2    5.4228515625    9.0380859375    0.0000000000
    58      2    3.6152343750    9.0380859375    1.8076171875
    59      2    5.4228515625    9.0380859375    3.6152343750
    60      2    9.0380859375    1.8076171875    0.0000000000
    61      2    7.2304687500    0.0000000000    3.6152343750
    62      2    7.2304687500    1.8076171875    5.4228515625
    63      2    7.2304687500    0.0000000000    7.2304687500
    64      2    9.0380859375    0.0000000000    9.0380859375
    65      2    9.0380859375    5.4228515625    0.0000000000
    66      2    7.2304687500    3.6152343750    3.6152343750
    67      2    9.0380859375    5.4228515625    7.2304687500
    68      2    9.0380859375    3.6152343750    9.0380859375
    69      2    9.0380859375    9.0380859375    0.0000000000
    70      2    7.2304687500    9.0380859375    5.4228515625
    71      2    7.2304687500    7.2304687500    7.2304687500
    72      2    7.2304687500    9.0380859375    9.0380859375
    73      3    1.8076171875    1.8076171875    0.0000000000
    74      3    0.0000000000    0.0000000000    3.6152343750
    75      3    1.8076171875    0.0000000000    5.4228515625
    76      3    1.8076171875    3.6152343750    1.8076171875
    77      3    1.8076171875    3.6152343750    5.4228515625
    78      3    0.0000000000    5.4228515625    5.4228515625
    79      3    1.8076171875    5.4228515625    7.2304687500
    80      3    0.0000000000    7.2304687500    0.0000000000
    81      3    1.8076171875    9.0380859375    0.0000000000
    82      3    1.8076171875    9.0380859375    3.6152343750
    83      3    0.0000000000    7.2304687500    7.2304687500
    84      3    1.8076171875    9.0380859375    7.2304687500
    85      3    1.8076171875    7.2304687500    9.0380859375
    86      3    3.6152343750    0.0000000000    0.0000000000
    87      3    5.4228515625    0.0000000000    1.8076171875
    88      3    3.6152343750    1.8076171875    1.8076171875
    89      3    5.4228515625    0.0000000000    9.0380859375
    90      3    5.4228515625    3.6152343750    1.8076171875
    91      3    3.6152343750    5.4228515625    1.8076171875
    92      3    5.4228515625    5.4228515625    3.6152343750
    93      3    5.4228515625    3.6152343750    5.4228515625
    94      3    3.6152343750    3.6152343750    7.2304687500
    95      3    3.6152343750    9.0380859375    5.4228515625
    96      3    5.4228515625    9.0380859375    7.2304687500
    97      3    5.4228515625    7.2304687500    9.0380859375
    98      3    9.0380859375    0.0000000000    1.8076171875
    99      3    7.2304687500    1.8076171875    1.8076171875
   100      3    9.0380859375    1.8076171875    3.6152343750
   101      3    9.0380859375    3.6152343750    1.8076171875
   102      3    7.2304687500    5.4228515625    1.8076171875
   103      3    9.0380859375    5.4228515625    3.6152343750
   104      3    9.0380859375    3.6152343750    5.4228515625
   105      3    7.2304687500    7.2304687500    0.0000000000
   106      3    9.0380859375    7.2304687500    1.8076171875
   107      3    7.2304687500    7.2304687500    3.6152343750
   108      3    9.0380859375    9.0380859375    3.6152343750
