
256 atoms
4 atom types
   0.0000000000   14.4600000000 xlo xhi
   0.0000000000   14.4600000000 ylo yhi
   0.0000000000   14.4600000000 zlo zhi
   0.0000000000    0.0000000000    0.0000000000 xy xz yz

Atoms # atomic

     1      1    0.0000000000    1.8075000000    1.8075000000
     2      1    0.0000000000    0.0000000000    3.6150000000
     3      1    1.8075000000    1.8075000000    3.6150000000
     4      1    1.8075000000    0.0000000000    5.4225000000
     5      1    0.0000000000    1.8075000000   12.6525000000
     6      1    0.0000000000    3.6150000000    0.0000000000
     7      1    1.8075000000    5.4225000000    0.0000000000
     8      1    0.0000000000    3.6150000000    3.6150000000
     9      1    1.8075000000    3.6150000000    5.4225000000
    10      1    0.0000000000    3.6150000000    7.2300000000
    11      1    1.8075000000    5.4225000000    7.2300000000
    12      1    1.8075000000    3.6150000000    9.0375000000
    13      1    0.0000000000    3.6150000000   10.8450000000
    14      1    0.0000000000    7.2300000000    0.0000000000
    15      1    0.0000000000    7.2300000000    3.6150000000
    16      1    1.8075000000    7.2300000000    5.4225000000
    17      1    0.0000000000    9.0375000000    5.4225000000
    18      1    1.8075000000    9.0375000000    7.2300000000
    19      1    1.8075000000    7.2300000000    9.0375000000
    20      1    0.0000000000    9.0375000000    9.0375000000
    21      1    1.8075000000    9.0375000000   10.8450000000
    22      1    0.0000000000   10.8450000000    0.0000000000
    23      1    1.8075000000   12.6525000000    0.0000000000
    24      1    1.8075000000   10.8450000000    1.8075000000
    25      1    0.0000000000   10.8450000000    7.2300000000
    26      1    0.0000000000   12.6525000000    9.0375000000
    27      1    1.8075000000   12.6525000000   10.8450000000
    28      1    0.0000000000   12.6525000000   12.6525000000
    29      1    5.4225000000    1.8075000000    0.0000000000
    30      1    5.4225000000    0.0000000000    1.8075000000
    31      1    3.6150000000    0.0000000000    3.6150000000
    32      1    3.6150000000    1.8075000000    5.4225000000
    33      1    3.6150000000    0.0000000000    7.2300000000
    34      1    5.4225000000    1.8075000000   10.8450000000
    35      1    3.6150000000    3.6150000000    0.0000000000
    36      1    5.4225000000    3.6150000000    1.8075000000
    37      1    5.4225000000    3.6150000000    5.4225000000
    38      1    3.6150000000    5.4225000000    5.4225000000
    39      1    5.4225000000    5.4225000000    7.2300000000
    40      1    5.4225000000    3.6150000000    9.0375000000
    41      1    3.6150000000    3.6150000000   10.8450000000
    42      1    5.4225000000    9.0375000000    0.0000000000
    43      1    5.4225000000    9.0375000000    3.6150000000
    44      1    5.4225000000    7.2300000000    5.4225000000
    45      1    3.6150000000    9.0375000000    5.4225000000
    46      1    5.4225000000    9.0375000000    7.2300000000
    47      1    3.6150000000    9.0375000000    9.0375000000
    48      1    3.6150000000    7.2300000000   10.8450000000
    49      1    5.4225000000    9.0375000000   10.8450000000
    50      1    5.4225000000    7.2300000000   12.6525000000
    51      1    3.6150000000    9.0375000000   12.6525000000
    52      1    3.6150000000   10.8450000000    0.0000000000
    53      1    3.6150000000   12.6525000000    1.8075000000
    54      1    5.4225000000   12.6525000000    3.6150000000
    55      1    3.6150000000   10.8450000000   10.8450000000
    56      1    5.4225000000   12.6525000000   10.8450000000
    57      1    9.0375000000    0.0000000000    1.8075000000
    58      1    7.2300000000    0.0000000000    3.6150000000
    59      1    7.2300000000    1.8075000000    9.0375000000
    60      1    9.0375000000    0.0000000000   12.6525000000
    61      1    7.2300000000    3.6150000000    0.0000000000
    62      1    9.0375000000    3.6150000000    1.8075000000
    63      1    9.0375000000    5.4225000000    3.6150000000
    64      1    9.0375000000    3.6150000000   12.6525000000
    65      1    7.2300000000    5.4225000000   12.6525000000
    66      1    7.2300000000    9.0375000000    1.8075000000
    67      1    9.0375000000    7.2300000000    5.4225000000
    68      1    7.2300000000    9.0375000000    5.4225000000
    69      1    7.2300000000    7.2300000000    7.2300000000
    70      1    9.0375000000    9.0375000000    7.2300000000
    71      1    9.0375000000    7.2300000000    9.0375000000
    72      1    7.2300000000    7.2300000000   10.8450000000
    73      1    9.0375000000    9.0375000000   10.8450000000
    74      1    9.0375000000    7.2300000000   12.6525000000
    75      1    9.0375000000   12.6525000000    0.0000000000
    76      1    9.0375000000   12.6525000000    3.6150000000
    77      1    9.0375000000   12.6525000000    7.2300000000
    78      1    9.0375000000   10.8450000000    9.0375000000
    79      1    9.0375000000   12.6525000000   10.8450000000
    80      1    9.0375000000   10.8450000000   12.6525000000
    81      1   12.6525000000    0.0000000000    1.8075000000
    82      1   12.6525000000    1.8075000000    3.6150000000
    83      1   12.6525000000    1.8075000000    7.2300000000
    84      1   10.8450000000    3.6150000000    0.0000000000
    85      1   12.6525000000    5.4225000000    0.0000000000
    86      1   12.6525000000    3.6150000000    1.8075000000
    87      1   10.8450000000    5.4225000000    1.8075000000
    88      1   10.8450000000    3.6150000000    3.6150000000
    89      1   12.6525000000    3.6150000000    9.0375000000
    90      1   10.8450000000    5.4225000000    9.0375000000
    91      1   10.8450000000    5.4225000000   12.6525000000
    92      1   12.6525000000    9.0375000000    3.6150000000
    93      1   12.6525000000    7.2300000000   12.6525000000
    94      1   10.8450000000    9.0375000000   12.6525000000
    95      1   12.6525000000   12.6525000000    0.0000000000
    96      1   10.8450000000   10.8450000000    3.6150000000
    97      1   12.6525000000   12.6525000000    3.6150000000
    98      1   10.8450000000   10.8450000000    7.2300000000
    99      1   12.6525000000   10.8450000000    9.0375000000
   100      1   10.8450000000   10.8450000000   10.8450000000
   101      1   12.6525000000   12.6525000000   10.8450000000
   102      1   12.6525000000   10.8450000000   12.6525000000
   103      1   10.8450000000   12.6525000000   12.6525000000
   104      2    0.0000000000    0.0000000000    0.0000000000
   105      2    1.8075000000    0.0000000000    1.8075000000
   106      2    0.0000000000    1.8075000000    5.4225000000
   107      2    0.0000000000    0.0000000000    7.2300000000
   108      2    1.8075000000    0.0000000000    9.0375000000
   109      2    0.0000000000    0.0000000000   10.8450000000
   110      2    1.8075000000    3.6150000000    1.8075000000
   111      2    0.0000000000    5.4225000000    1.8075000000
   112      2    0.0000000000    5.4225000000    5.4225000000
   113      2    0.0000000000    5.4225000000    9.0375000000
   114      2    1.8075000000    5.4225000000   10.8450000000
   115      2    1.8075000000    3.6150000000   12.6525000000
   116      2    1.8075000000    9.0375000000    0.0000000000
   117      2    1.8075000000    7.2300000000    1.8075000000
   118      2    1.8075000000    9.0375000000    3.6150000000
   119      2    0.0000000000    7.2300000000    7.2300000000
   120      2    1.8075000000    7.2300000000   12.6525000000
   121      2    0.0000000000   12.6525000000    1.8075000000
   122      2    0.0000000000   10.8450000000    3.6150000000
   123      2    1.8075000000   12.6525000000    3.6150000000
   124      2    1.8075000000   10.8450000000    5.4225000000
   125      2    0.0000000000   12.6525000000    5.4225000000
   126      2    1.8075000000   12.6525000000    7.2300000000
   127      2    1.8075000000   10.8450000000    9.0375000000
   128      2    0.0000000000   10.8450000000   10.8450000000
   129      2    1.8075000000   10.8450000000   12.6525000000
   130      2    3.6150000000    0.0000000000    0.0000000000
   131      2    3.6150000000    1.8075000000    1.8075000000
   132      2    5.4225000000    0.0000000000    9.0375000000
   133      2    3.6150000000    1.8075000000    9.0375000000
   134      2    3.6150000000    0.0000000000   10.8450000000
   135      2    5.4225000000    0.0000000000   12.6525000000
   136      2    3.6150000000    1.8075000000   12.6525000000
   137      2    5.4225000000    5.4225000000    0.0000000000
   138      2    5.4225000000    5.4225000000    3.6150000000
   139      2    3.6150000000    3.6150000000    7.2300000000
   140      2    3.6150000000    5.4225000000    9.0375000000
   141      2    5.4225000000    5.4225000000   10.8450000000
   142      2    3.6150000000    5.4225000000   12.6525000000
   143      2    3.6150000000    7.2300000000    7.2300000000
   144      2    5.4225000000    7.2300000000    9.0375000000
   145      2    5.4225000000   10.8450000000    1.8075000000
   146      2    3.6150000000   10.8450000000    3.6150000000
   147      2    3.6150000000   12.6525000000    5.4225000000
   148      2    5.4225000000   12.6525000000    7.2300000000
   149      2    5.4225000000   10.8450000000    9.0375000000
   150      2    3.6150000000   12.6525000000    9.0375000000
   151      2    3.6150000000   12.6525000000   12.6525000000
   152      2    7.2300000000    0.0000000000    0.0000000000
   153      2    9.0375000000    1.8075000000    0.0000000000
   154      2    7.2300000000    1.8075000000    1.8075000000
   155      2    9.0375000000    0.0000000000    5.4225000000
   156      2    7.2300000000    1.8075000000    5.4225000000
   157      2    9.0375000000    1.8075000000    7.2300000000
   158      2    7.2300000000    0.0000000000   10.8450000000
   159      2    7.2300000000    5.4225000000    1.8075000000
   160      2    7.2300000000    3.6150000000    3.6150000000
   161      2    9.0375000000    3.6150000000    5.4225000000
   162      2    7.2300000000    3.6150000000    7.2300000000
   163      2    9.0375000000    5.4225000000    7.2300000000
   164      2    9.0375000000    3.6150000000    9.0375000000
   165      2    7.2300000000    5.4225000000    9.0375000000
   166      2    9.0375000000    5.4225000000   10.8450000000
   167      2    7.2300000000    7.2300000000    0.0000000000
   168      2    9.0375000000    9.0375000000    0.0000000000
   169      2    9.0375000000    7.2300000000    1.8075000000
   170      2    9.0375000000    9.0375000000    3.6150000000
   171      2    7.2300000000    9.0375000000   12.6525000000
   172      2    7.2300000000   10.8450000000    0.0000000000
   173      2    9.0375000000   10.8450000000    1.8075000000
   174      2    7.2300000000   12.6525000000    1.8075000000
   175      2    9.0375000000   10.8450000000    5.4225000000
   176      2    7.2300000000   12.6525000000    9.0375000000
   177      2    7.2300000000   10.8450000000   10.8450000000
   178      2    7.2300000000   12.6525000000   12.6525000000
   179      2   10.8450000000    0.0000000000    0.0000000000
   180      2   10.8450000000    0.0000000000    3.6150000000
   181      2   12.6525000000    0.0000000000    5.4225000000
   182      2   10.8450000000    0.0000000000    7.2300000000
   183      2   10.8450000000    1.8075000000    9.0375000000
   184      2   10.8450000000    0.0000000000   10.8450000000
   185      2   10.8450000000    1.8075000000   12.6525000000
   186      2   12.6525000000    5.4225000000    3.6150000000
   187      2   12.6525000000    3.6150000000    5.4225000000
   188      2   10.8450000000    5.4225000000    5.4225000000
   189      2   10.8450000000    3.6150000000    7.2300000000
   190      2   12.6525000000    5.4225000000    7.2300000000
   191      2   12.6525000000    5.4225000000   10.8450000000
   192      2   12.6525000000    9.0375000000    0.0000000000
   193      2   12.6525000000    7.2300000000    1.8075000000
   194      2   10.8450000000    9.0375000000    1.8075000000
   195      2   10.8450000000    7.2300000000    3.6150000000
   196      2   10.8450000000    9.0375000000    5.4225000000
   197      2   10.8450000000    7.2300000000    7.2300000000
   198      2   12.6525000000    9.0375000000    7.2300000000
   199      2   12.6525000000    7.2300000000    9.0375000000
   200      2   10.8450000000    7.2300000000   10.8450000000
   201      2   12.6525000000    9.0375000000   10.8450000000
   202      2   10.8450000000   12.6525000000    1.8075000000
   203      2   12.6525000000   10.8450000000    5.4225000000
   204      2   10.8450000000   12.6525000000    5.4225000000
   205      2   12.6525000000   12.6525000000    7.2300000000
   206      2   10.8450000000   12.6525000000    9.0375000000
   207      3    1.8075000000    1.8075000000    0.0000000000
   208      3    0.0000000000    1.8075000000    9.0375000000
   209      3    1.8075000000    0.0000000000   12.6525000000
   210      3    0.0000000000    7.2300000000   10.8450000000
   211      3    0.0000000000    9.0375000000   12.6525000000
   212      3    5.4225000000    1.8075000000    3.6150000000
   213      3    5.4225000000    0.0000000000    5.4225000000
   214      3    5.4225000000    1.8075000000    7.2300000000
   215      3    5.4225000000    3.6150000000   12.6525000000
   216      3    5.4225000000    7.2300000000    1.8075000000
   217      3    3.6150000000    9.0375000000    1.8075000000
   218      3    5.4225000000   10.8450000000    5.4225000000
   219      3    5.4225000000   10.8450000000   12.6525000000
   220      3    9.0375000000    5.4225000000    0.0000000000
   221      3    7.2300000000   10.8450000000    3.6150000000
   222      3    7.2300000000   12.6525000000    5.4225000000
   223      3    7.2300000000   10.8450000000    7.2300000000
   224      3   12.6525000000    1.8075000000    0.0000000000
   225      3   10.8450000000    1.8075000000    5.4225000000
   226      3   12.6525000000    0.0000000000    9.0375000000
   227      3   12.6525000000    0.0000000000   12.6525000000
   228      3   10.8450000000    3.6150000000   10.8450000000
   229      3   12.6525000000    3.6150000000   12.6525000000
   230      3   12.6525000000    7.2300000000    5.4225000000
   231      3   10.8450000000    9.0375000000    9.0375000000
   232      4    1.8075000000    1.8075000000    7.2300000000
   233      4    1.8075000000    1.8075000000   10.8450000000
   234      4    1.8075000000    5.4225000000    3.6150000000
   235      4    0.0000000000    5.4225000000   12.6525000000
   236      4    0.0000000000    9.0375000000    1.8075000000
   237      4    3.6150000000    5.4225000000    1.8075000000
   238      4    3.6150000000    3.6150000000    3.6150000000
   239      4    3.6150000000    7.2300000000    0.0000000000
   240      4    3.6150000000    7.2300000000    3.6150000000
   241      4    5.4225000000   12.6525000000    0.0000000000
   242      4    3.6150000000   10.8450000000    7.2300000000
   243      4    9.0375000000    1.8075000000    3.6150000000
   244      4    7.2300000000    0.0000000000    7.2300000000
   245      4    9.0375000000    0.0000000000    9.0375000000
   246      4    9.0375000000    1.8075000000   10.8450000000
   247      4    7.2300000000    1.8075000000   12.6525000000
   248      4    7.2300000000    5.4225000000    5.4225000000
   249      4    7.2300000000    3.6150000000   10.8450000000
   250      4    7.2300000000    7.2300000000    3.6150000000
   251      4    7.2300000000    9.0375000000    9.0375000000
   252      4   10.8450000000    1.8075000000    1.8075000000
   253      4   12.6525000000    1.8075000000   10.8450000000
   254      4   10.8450000000    7.2300000000    0.0000000000
   255      4   10.8450000000   10.8450000000    0.0000000000
   256      4   12.6525000000   10.8450000000    1.8075000000
