
108 atoms
3 atom types
   0.0000000000   10.8457031250 xlo xhi
   0.0000000000   10.8457031250 ylo yhi
   0.0000000000   10.8457031250 zlo zhi
   0.0000000000    0.0000000000    0.0000000000 xy xz yz

Atoms # atomic

     1      1    0.0000000000    1.8076171875    1.8076171875
     2      1    1.8076171875    1.8076171875    3.6152343750
     3      1    0.0000000000    1.8076171875    5.4228515625
     4      1    0.0000000000    0.0000000000    7.2304687500
     5      1    1.8076171875    3.6152343750    1.8076171875
     6      1    0.0000000000    5.4228515625    1.8076171875
     7      1    0.0000000000    5.4228515625    5.4228515625
     8      1    1.8076171875    5.4228515625    7.2304687500
     9      1    1.8076171875    3.6152343750    9.0380859375
    10      1    0.0000000000    7.2304687500    0.0000000000
    11      1    1.8076171875    9.0380859375    0.0000000000
    12      1    0.0000000000    9.0380859375    9.0380859375
    13      1    3.6152343750    0.0000000000    0.0000000000
    14      1    3.6152343750    0.0000000000    3.6152343750
    15      1    5.4228515625    0.0000000000    5.4228515625
    16      1    3.6152343750    1.8076171875    5.4228515625
    17      1    3.6152343750    0.0000000000    7.2304687500
    18      1    3.6152343750    1.8076171875    9.0380859375
    19      1    3.6152343750    3.6152343750    0.0000000000
    20      1    5.4228515625    5.4228515625    0.0000000000
    21      1    5.4228515625    5.4228515625    3.6152343750
    22      1    5.4228515625    5.4228515625    7.2304687500
    23      1    3.6152343750    9.0380859375    9.0380859375
    24      1    7.2304687500    0.0000000000    0.0000000000
    25      1    9.0380859375    1.8076171875    0.0000000000
    26      1    9.0380859375    1.8076171875    3.6152343750
    27      1    9.0380859375    0.0000000000    5.4228515625
    28      1    7.2304687500    0.0000000000    7.2304687500
    29      1    9.0380859375    5.4228515625    0.0000000000
    30      1    7.2304687500    3.6152343750    3.6152343750
    31      1    7.2304687500    5.4228515625    9.0380859375
    32      1    7.2304687500    7.2304687500    0.0000000000
    33      1    7.2304687500    7.2304687500    3.6152343750
    34      1    7.2304687500    7.2304687500    7.2304687500
    35      1    9.0380859375    9.0380859375    7.2304687500
    36      1    9.0380859375    7.2304687500    9.0380859375
    37      2    0.0000000000    0.0000000000    0.0000000000
    38      2    1.8076171875    1.8076171875    0.0000000000
    39      2    1.8076171875    0.0000000000    9.0380859375
    40      2    0.0000000000    3.6152343750    0.0000000000
    41      2    1.8076171875    5.4228515625    0.0000000000
    42      2    0.0000000000    3.6152343750    3.6152343750
    43      2    1.8076171875    7.2304687500    1.8076171875
    44      2    1.8076171875    7.2304687500    5.4228515625
    45      2    0.0000000000    7.2304687500    7.2304687500
    46      2    3.6152343750    1.8076171875    1.8076171875
    47      2    5.4228515625    1.8076171875    3.6152343750
    48      2    5.4228515625    3.6152343750    1.8076171875
    49      2    3.6152343750    5.4228515625    1.8076171875
    50      2    3.6152343750    3.6152343750    3.6152343750
    51      2    3.6152343750    5.4228515625    5.4228515625
    52      2    3.6152343750    3.6152343750    7.2304687500
    53      2    3.6152343750    5.4228515625    9.0380859375
    54      2    3.6152343750    7.2304687500    0.0000000000
    55      2    5.4228515625    9.0380859375    0.0000000000
    56      2    3.6152343750    9.0380859375    1.8076171875
    57      2    3.6152343750    7.2304687500    3.6152343750
    58      2    5.4228515625    9.0380859375    7.2304687500
    59      2    7.2304687500    1.8076171875    1.8076171875
    60      2    9.0380859375    1.8076171875    7.2304687500
    61      2    9.0380859375    0.0000000000    9.0380859375
    62      2    7.2304687500    5.4228515625    1.8076171875
    63      2    9.0380859375    5.4228515625    3.6152343750
    64      2    9.0380859375    3.6152343750    5.4228515625
    65      2    7.2304687500    5.4228515625    5.4228515625
    66      2    9.0380859375    3.6152343750    9.0380859375
    67      2    9.0380859375    9.0380859375    0.0000000000
    68      2    7.2304687500    9.0380859375    1.8076171875
    69      2    9.0380859375    9.0380859375    3.6152343750
    70      2    9.0380859375    7.2304687500    5.4228515625
    71      2    7.2304687500    9.0380859375    5.4228515625
    72      2    7.2304687500    9.0380859375    9.0380859375
    73      3    1.8076171875    0.0000000000    1.8076171875
    74      3    0.0000000000    0.0000000000    3.6152343750
    75      3    1.8076171875    0.0000000000    5.4228515625
    76      3    1.8076171875    1.8076171875    7.2304687500
    77      3    0.0000000000    1.8076171875    9.0380859375
    78      3    1.8076171875    5.4228515625    3.6152343750
    79      3    1.8076171875    3.6152343750    5.4228515625
    80      3    0.0000000000    3.6152343750    7.2304687500
    81      3    0.0000000000    5.4228515625    9.0380859375
    82      3    0.0000000000    9.0380859375    1.8076171875
    83      3    0.0000000000    7.2304687500    3.6152343750
    84      3    1.8076171875    9.0380859375    3.6152343750
    85      3    0.0000000000    9.0380859375    5.4228515625
    86      3    1.8076171875    9.0380859375    7.2304687500
    87      3    1.8076171875    7.2304687500    9.0380859375
    88      3    5.4228515625    1.8076171875    0.0000000000
    89      3    5.4228515625    0.0000000000    1.8076171875
    90      3    5.4228515625    1.8076171875    7.2304687500
    91      3    5.4228515625    0.0000000000    9.0380859375
    92      3    5.4228515625    3.6152343750    5.4228515625
    93      3    5.4228515625    3.6152343750    9.0380859375
    94      3    5.4228515625    7.2304687500    1.8076171875
    95      3    5.4228515625    9.0380859375    3.6152343750
    96      3    5.4228515625    7.2304687500    5.4228515625
    97      3    3.6152343750    9.0380859375    5.4228515625
    98      3    3.6152343750    7.2304687500    7.2304687500
    99      3    5.4228515625    7.2304687500    9.0380859375
   100      3    9.0380859375    0.0000000000    1.8076171875
   101      3    7.2304687500    0.0000000000    3.6152343750
   102      3    7.2304687500    1.8076171875    5.4228515625
   103      3    7.2304687500    1.8076171875    9.0380859375
   104      3    7.2304687500    3.6152343750    0.0000000000
   105      3    9.0380859375    3.6152343750    1.8076171875
   106      3    7.2304687500    3.6152343750    7.2304687500
   107      3    9.0380859375    5.4228515625    7.2304687500
   108      3    9.0380859375    7.2304687500    1.8076171875
